LAMMPS data file via write_data, version 10 Dec 2025, timestep = 63, units = metal

512 atoms
2 atom types

0 54.936000824 xlo xhi
0 47.5759722959 ylo yhi
0 19.8069992065 zlo zhi
-27.468000412 0 0 xy xz yz

Masses

1 51.996
2 126.904

Atoms # spin

65 1 0 0 6.609133478500003 0.04204489850342858 -0.06558577948928761 -0.9969607474914035 3 0 0 0
321 2 -1.0266508229 1.9752155905999997 5.0382403714000015 1 0 0 0 0 0 0
97 1 6.867000103 0 6.609133478500003 0.04617886316219653 -0.055624636532311894 -0.9973832825988681 3 0 0 0
353 2 5.8403492801 1.9752155905999997 5.0382403714000015 1 0 0 0 0 0 0
69 1 13.734000206 0 6.609133478500003 0.045257100788902375 -0.05529348869923278 -0.9974439457611886 3 0 0 0
325 2 12.707349383099999 1.9752155905999997 5.0382403714000015 1 0 0 0 0 0 0
357 2 19.574349486099997 1.9752155905999997 5.0382403714000015 1 0 0 0 0 0 0
101 1 20.601000309 0 6.609133478500003 0.04646393043975068 -0.0540451765712054 -0.9974568772921854 3 0 0 0
329 2 26.441349534099995 1.9752155905999997 5.0382403714000015 1 0 0 0 0 0 0
73 1 27.468000412 0 6.609133478500003 0.04795927817136996 -0.054959709617779615 -0.9973361208519478 3 0 0 0
361 2 33.30834969210002 1.9752155905999997 5.0382403714000015 1 0 0 0 0 0 0
105 1 34.335000515 0 6.609133478500003 0.05011199867632689 -0.05724890134304417 -0.9971014747174325 3 0 0 0
333 2 40.1753497401 1.9752155905999997 5.0382403714000015 1 0 0 0 0 0 0
77 1 41.202000618 0 6.609133478500003 0.05342482901498049 -0.060458552572864435 -0.9967399616075967 3 0 0 0
365 2 47.0423498981 1.9752155905999997 5.0382403714000015 1 0 0 0 0 0 0
109 1 48.069000721 0 6.609133478500003 0.05498646336393455 -0.06400075867335696 -0.9964338371090977 3 0 0 0
1 1 0 3.9646644849 6.5955326658 0.022846527843362753 -0.0817857479805487 -0.996388040671285 3 0 0 0
385 2 2.2362386109999997 4.0702830006 5.0382403714000015 1 0 0 0 0 0 0
33 1 6.867000102999999 3.9646644849 6.5955326658 0.02893706096423034 -0.04766408905574842 -0.9984441802711039 3 0 0 0
417 2 9.103238713999998 4.0702830006 5.0382403714000015 1 0 0 0 0 0 0
5 1 13.734000205999997 3.9646644849 6.5955326658 0.029926424583342007 -0.035519972860429974 -0.9989207879705239 3 0 0 0
389 2 15.970238817000002 4.0702830006 5.0382403714000015 1 0 0 0 0 0 0
37 1 20.601000309 3.9646644849 6.5955326658 0.03111224799359314 -0.03158553260016314 -0.9990167076456484 3 0 0 0
421 2 22.83723892 4.0702830006 5.0382403714000015 1 0 0 0 0 0 0
9 1 27.468000412 3.9646644849 6.5955326658 0.03278856028035166 -0.032304617805640236 -0.9989400992968362 3 0 0 0
393 2 29.704238968099997 4.0702830006 5.0382403714000015 1 0 0 0 0 0 0
41 1 34.335000515000004 3.9646644849 6.5955326658 0.03639980373257787 -0.03650081777872377 -0.9986704884944353 3 0 0 0
425 2 36.57123907110002 4.0702830006 5.0382403714000015 1 0 0 0 0 0 0
13 1 41.202000618 3.9646644849 6.5955326658 0.04303347272075702 -0.045724963999420117 -0.9980267270433414 3 0 0 0
397 2 43.4382391741 4.0702830006 5.0382403714000015 1 0 0 0 0 0 0
45 1 48.06900072100001 3.9646644849 6.5955326658 0.045092711666810864 -0.07341945935631071 -0.996281200436082 3 0 0 0
429 2 50.3052392771 4.0702830006 5.0382403714000015 1 0 0 0 0 0 0
81 1 -3.4335000515 5.946996537 6.609133478500003 0.014650292946161197 -0.11988210761497609 -0.992680033641447 3 0 0 0
449 2 -1.2095877605999998 5.8484944352 5.0382403714000015 1 0 0 0 0 0 0
113 1 3.4335000514999994 5.946996537 6.609133478500003 0.01802394118492077 -0.05559935528855154 -0.9982904633600693 3 0 0 0
481 2 5.657412397299999 5.8484944352 5.0382403714000015 1 0 0 0 0 0 0
85 1 10.300500154499998 5.946996537 6.609133478500003 0.020841400500570612 -0.032893531701877185 -0.9992415381664994 3 0 0 0
453 2 12.524412500300002 5.8484944352 5.0382403714000015 1 0 0 0 0 0 0
117 1 17.1675002575 5.946996537 6.609133478500003 0.02148716672977506 -0.024906684482716508 -0.9994588329361067 3 0 0 0
485 2 19.3914126033 5.8484944352 5.0382403714000015 1 0 0 0 0 0 0
89 1 24.034500360500004 5.946996537 6.609133478500003 0.02264907252193595 -0.0236454421357328 -0.9994638125415559 3 0 0 0
457 2 26.258412651399997 5.8484944352 5.0382403714000015 1 0 0 0 0 0 0
121 1 30.9015004635 5.946996537 6.609133478500003 0.025058421124969563 -0.02672715597439303 -0.9993286419713194 3 0 0 0
489 2 33.12541275440001 5.8484944352 5.0382403714000015 1 0 0 0 0 0 0
93 1 37.76850056649998 5.946996537 6.609133478500003 0.03114098119338417 -0.0341532107496306 -0.9989313277126738 3 0 0 0
461 2 39.9924128574 5.8484944352 5.0382403714000015 1 0 0 0 0 0 0
125 1 44.6355006695 5.946996537 6.609133478500003 0.03743492687400392 -0.053748732137907505 -0.9978525442386302 3 0 0 0
493 2 46.859412960400014 5.8484944352 5.0382403714000015 1 0 0 0 0 0 0
337 2 -4.460150874399997 7.922212127600001 5.0382403714000015 1 0 0 0 0 0 0
369 2 2.4068492286000005 7.922212127600001 5.0382403714000015 1 0 0 0 0 0 0
341 2 9.273849331599997 7.922212127600001 5.0382403714000015 1 0 0 0 0 0 0
373 2 16.140849434599993 7.922212127600001 5.0382403714000015 1 0 0 0 0 0 0
345 2 23.0078494826 7.922212127600001 5.0382403714000015 1 0 0 0 0 0 0
377 2 29.874849640599994 7.922212127600001 5.0382403714000015 1 0 0 0 0 0 0
349 2 36.741849688600006 7.922212127600001 5.0382403714000015 1 0 0 0 0 0 0
381 2 43.6088498466 7.922212127600001 5.0382403714000015 1 0 0 0 0 0 0
465 2 -4.643087812100001 11.7954909721 5.0382403714000015 1 0 0 0 0 0 0
17 1 -3.4335000515 9.9116610218 6.5955326658 0.007193241001074861 -0.09491026946694453 -0.9954598425017516 3 0 0 0
401 2 -1.1972614405000002 10.0172795376 5.0382403714000015 1 0 0 0 0 0 0
497 2 2.2239123458000014 11.7954909721 5.0382403714000015 1 0 0 0 0 0 0
49 1 3.4335000514999994 9.9116610218 6.5955326658 0.015460681806294976 -0.03728083960620032 -0.9991852212259453 3 0 0 0
433 2 5.669738662500001 10.0172795376 5.0382403714000015 1 0 0 0 0 0 0
469 2 9.090912448799997 11.7954909721 5.0382403714000015 1 0 0 0 0 0 0
21 1 10.300500154499996 9.9116610218 6.5955326658 0.014344195350032174 -0.01607937912988078 -0.9997678218599341 3 0 0 0
405 2 12.5367387655 10.0172795376 5.0382403714000015 1 0 0 0 0 0 0
53 1 17.1675002575 9.9116610218 6.5955326658 0.013245010322881372 -0.009133376621461343 -0.9998705671900928 3 0 0 0
501 2 15.9579125518 11.7954909721 5.0382403714000015 1 0 0 0 0 0 0
437 2 19.40373886849999 10.0172795376 5.0382403714000015 1 0 0 0 0 0 0
25 1 24.034500360500004 9.9116610218 6.5955326658 0.013922806041030298 -0.008902480876400842 -0.9998634413289595 3 0 0 0
473 2 22.824912599899992 11.7954909721 5.0382403714000015 1 0 0 0 0 0 0
409 2 26.2707389166 10.0172795376 5.0382403714000015 1 0 0 0 0 0 0
57 1 30.9015004635 9.9116610218 6.5955326658 0.017325744602138416 -0.013509419581867587 -0.9997586279480388 3 0 0 0
505 2 29.691912702900005 11.7954909721 5.0382403714000015 1 0 0 0 0 0 0
441 2 33.1377390196 10.0172795376 5.0382403714000015 1 0 0 0 0 0 0
29 1 37.76850056649999 9.9116610218 6.5955326658 0.025575482100931718 -0.02395826765900654 -0.9993857594172947 3 0 0 0
477 2 36.5589128059 11.7954909721 5.0382403714000015 1 0 0 0 0 0 0
413 2 40.0047391226 10.0172795376 5.0382403714000015 1 0 0 0 0 0 0
61 1 44.6355006695 9.9116610218 6.5955326658 0.028692815008805057 -0.05710390992475769 -0.9979558436314578 3 0 0 0
509 2 43.4259129089 11.7954909721 5.0382403714000015 1 0 0 0 0 0 0
445 2 46.8717392256 10.0172795376 5.0382403714000015 1 0 0 0 0 0 0
66 1 -6.867000103 11.893993074 6.609133478500003 -0.00018690807542769524 -0.1171536415102136 -0.9931137846925034 3 0 0 0
322 2 -7.8936509259 13.8692086646 5.0382403714000015 1 0 0 0 0 0 0
98 1 0 11.893993074 6.609133478500003 0.012832255694887424 -0.052322339472251386 -0.9985477985584522 3 0 0 0
354 2 -1.0266508229000033 13.8692086646 5.0382403714000015 1 0 0 0 0 0 0
70 1 6.867000102999999 11.893993074 6.609133478500003 0.012631061490209894 -0.01994284351097074 -0.9997213308109048 3 0 0 0
326 2 5.8403492801 13.8692086646 5.0382403714000015 1 0 0 0 0 0 0
102 1 13.734000205999997 11.893993074 6.609133478500003 0.010183968943070294 -0.008437652423375158 -0.9999125425746737 3 0 0 0
358 2 12.707349383099995 13.8692086646 5.0382403714000015 1 0 0 0 0 0 0
330 2 19.574349431099996 13.8692086646 5.0382403714000015 1 0 0 0 0 0 0
74 1 20.601000308999996 11.893993074 6.609133478500003 0.009152146532659836 -0.005610512819608967 -0.9999423785197552 3 0 0 0
362 2 26.441349589100003 13.8692086646 5.0382403714000015 1 0 0 0 0 0 0
106 1 27.468000411999995 11.893993074 6.609133478500003 0.010534640349307815 -0.008535412440044658 -0.9999080798189355 3 0 0 0
334 2 33.308349637099994 13.8692086646 5.0382403714000015 1 0 0 0 0 0 0
78 1 34.335000515 11.893993074 6.609133478500003 0.017138745369208428 -0.01688725390660518 -0.9997105001262432 3 0 0 0
366 2 40.17534979509999 13.8692086646 5.0382403714000015 1 0 0 0 0 0 0
110 1 41.20200061799999 11.893993074 6.609133478500003 0.025046962567066403 -0.03737434772026318 -0.9989873912110443 3 0 0 0
2 1 -6.867000103 15.858657558800001 6.5955326658 8.931680730405834e-05 -0.09132976968593569 -0.9958206993187183 3 0 0 0
386 2 -4.630761492 15.9642760746 5.0382403714000015 1 0 0 0 0 0 0
34 1 0 15.858657558800001 6.5955326658 0.014476536683434918 -0.03371305271730075 -0.9993267033168556 3 0 0 0
418 2 2.236238611000001 15.9642760746 5.0382403714000015 1 0 0 0 0 0 0
6 1 6.867000102999999 15.858657558800001 6.5955326658 0.010924666942586782 -0.011554383533287397 -0.9998735659438942 3 0 0 0
390 2 9.103238714 15.9642760746 5.0382403714000015 1 0 0 0 0 0 0
38 1 13.734000206000001 15.858657558800001 6.5955326658 0.006780299276035107 -0.00412339297066383 -0.9999685120903229 3 0 0 0
422 2 15.970238817000002 15.9642760746 5.0382403714000015 1 0 0 0 0 0 0
10 1 20.601000309000003 15.858657558800001 6.5955326658 0.0046368923258310706 -0.0029571020408777986 -0.9999848772741912 3 0 0 0
394 2 22.8372388651 15.9642760746 5.0382403714000015 1 0 0 0 0 0 0
42 1 27.468000412000002 15.858657558800001 6.5955326658 0.006089824604627809 -0.0076338219286441805 -0.9999523182627496 3 0 0 0
426 2 29.704238968100004 15.9642760746 5.0382403714000015 1 0 0 0 0 0 0
14 1 34.335000515000004 15.858657558800001 6.5955326658 0.015319440456601403 -0.01926364414934842 -0.9996970674950414 3 0 0 0
398 2 36.571239071099995 15.9642760746 5.0382403714000015 1 0 0 0 0 0 0
46 1 41.202000618 15.858657558800001 6.5955326658 0.021633868111602266 -0.05027304152462025 -0.998501175285434 3 0 0 0
430 2 43.438239174100005 15.9642760746 5.0382403714000015 1 0 0 0 0 0 0
82 1 -10.3005001545 17.840989611 6.609133478500003 -0.0021863866351964317 -0.11181863010341665 -0.9937262267220669 3 0 0 0
450 2 -8.0765878636 17.7424875091 5.0382403714000015 1 0 0 0 0 0 0
114 1 -3.4335000515000003 17.840989611 6.609133478500003 0.011048495170054549 -0.04796993785773123 -0.9987876730398726 3 0 0 0
482 2 -1.2095877057000006 17.7424875091 5.0382403714000015 1 0 0 0 0 0 0
86 1 3.433500051500001 17.840989611 6.609133478500003 0.012630268654544557 -0.017164968520983596 -0.9997728942961933 3 0 0 0
454 2 5.6574123973 17.7424875091 5.0382403714000015 1 0 0 0 0 0 0
118 1 10.3005001545 17.840989611 6.609133478500003 0.0073750391045508444 -0.0061201851478133755 -0.9999540750114303 3 0 0 0
486 2 12.5244125003 17.7424875091 5.0382403714000015 1 0 0 0 0 0 0
90 1 17.1675002575 17.840989611 6.609133478500003 0.0037486138619679237 -0.002674568861256866 -0.9999893972315518 3 0 0 0
458 2 19.391412548400005 17.7424875091 5.0382403714000015 1 0 0 0 0 0 0
122 1 24.03450036049999 17.840989611 6.609133478500003 0.0019174462799693547 -0.004334244247952352 -0.9999887688002116 3 0 0 0
490 2 26.2584126514 17.7424875091 5.0382403714000015 1 0 0 0 0 0 0
94 1 30.9015004635 17.840989611 6.609133478500003 0.006017016806886881 -0.013183480166412674 -0.9998949901661908 3 0 0 0
462 2 33.1254127544 17.7424875091 5.0382403714000015 1 0 0 0 0 0 0
126 1 37.7685005665 17.840989611 6.609133478500003 0.019289565211259033 -0.03333845794170324 -0.9992579546323508 3 0 0 0
494 2 39.99241285739999 17.7424875091 5.0382403714000015 1 0 0 0 0 0 0
338 2 -11.3271509774 19.8162052016 5.0382403714000015 1 0 0 0 0 0 0
370 2 -4.4601508744 19.8162052016 5.0382403714000015 1 0 0 0 0 0 0
342 2 2.406849228599997 19.8162052016 5.0382403714000015 1 0 0 0 0 0 0
374 2 9.2738493316 19.8162052016 5.0382403714000015 1 0 0 0 0 0 0
346 2 16.1408493796 19.8162052016 5.0382403714000015 1 0 0 0 0 0 0
378 2 23.007849537599995 19.8162052016 5.0382403714000015 1 0 0 0 0 0 0
350 2 29.874849585599996 19.8162052016 5.0382403714000015 1 0 0 0 0 0 0
382 2 36.7418497436 19.8162052016 5.0382403714000015 1 0 0 0 0 0 0
466 2 -11.5100879151 23.6894840461 5.0382403714000015 1 0 0 0 0 0 0
18 1 -10.3005001545 21.8056540958 6.5955326658 0.0033222196205392593 -0.08073587385148091 -0.9967299942964647 3 0 0 0
402 2 -8.0642615435 21.9112726116 5.0382403714000015 1 0 0 0 0 0 0
498 2 -4.643087757200002 23.6894840461 5.0382403714000015 1 0 0 0 0 0 0
50 1 -3.4335000514999994 21.8056540958 6.5955326658 0.015212721081191267 -0.028164996916721165 -0.999487521715998 3 0 0 0
434 2 -1.1972614405000002 21.9112726116 5.0382403714000015 1 0 0 0 0 0 0
470 2 2.2239123457999987 23.6894840461 5.0382403714000015 1 0 0 0 0 0 0
22 1 3.433500051500001 21.8056540958 6.5955326658 0.011616760166063047 -0.009401801108734698 -0.999888322273621 3 0 0 0
406 2 5.669738662499999 21.9112726116 5.0382403714000015 1 0 0 0 0 0 0
502 2 9.0909124488 23.6894840461 5.0382403714000015 1 0 0 0 0 0 0
54 1 10.3005001545 21.8056540958 6.5955326658 0.005878184507247806 -0.003431099373424512 -0.9999768369837311 3 0 0 0
438 2 12.536738765500004 21.9112726116 5.0382403714000015 1 0 0 0 0 0 0
26 1 17.167500257500002 21.8056540958 6.5955326658 0.001824215898743396 -0.0016994257219135177 -0.9999968920894569 3 0 0 0
474 2 15.957912496900002 23.6894840461 5.0382403714000015 1 0 0 0 0 0 0
410 2 19.403738813599997 21.9112726116 5.0382403714000015 1 0 0 0 0 0 0
58 1 24.034500360499997 21.8056540958 6.5955326658 -0.0011384347700323586 -0.003694254794786556 -0.9999925281959784 3 0 0 0
506 2 22.824912599900003 23.6894840461 5.0382403714000015 1 0 0 0 0 0 0
442 2 26.2707389166 21.9112726116 5.0382403714000015 1 0 0 0 0 0 0
30 1 30.9015004635 21.8056540958 6.5955326658 0.0031064299414228515 -0.013124210553286528 -0.9999090484590937 3 0 0 0
478 2 29.691912702899984 23.6894840461 5.0382403714000015 1 0 0 0 0 0 0
414 2 33.137739019600005 21.9112726116 5.0382403714000015 1 0 0 0 0 0 0
62 1 37.7685005665 21.8056540958 6.5955326658 0.018720321764654768 -0.03975926174600172 -0.9990339086629842 3 0 0 0
510 2 36.5589128059 23.6894840461 5.0382403714000015 1 0 0 0 0 0 0
446 2 40.0047391226 21.9112726116 5.0382403714000015 1 0 0 0 0 0 0
67 1 -13.734000206 23.787986148 6.609133478500003 0.0022441390348253362 -0.08804580690172592 -0.9961138989729111 3 0 0 0
323 2 -14.760651028900002 25.7632017386 5.0382403714000015 1 0 0 0 0 0 0
99 1 -6.867000103 23.787986148 6.609133478500003 0.013075281564288709 -0.037898534972117155 -0.9991960458583599 3 0 0 0
355 2 -7.8936509259 25.7632017386 5.0382403714000015 1 0 0 0 0 0 0
71 1 0 23.787986148 6.609133478500003 0.013839103026825204 -0.01306574761820726 -0.999818866328592 3 0 0 0
327 2 -1.0266508229000024 25.7632017386 5.0382403714000015 1 0 0 0 0 0 0
103 1 6.867000102999999 23.787986148 6.609133478500003 0.007587984968360612 -0.004789578931073425 -0.9999597403984742 3 0 0 0
359 2 5.840349280100002 25.7632017386 5.0382403714000015 1 0 0 0 0 0 0
75 1 13.734000205999997 23.787986148 6.609133478500003 0.003260202197085602 -0.0019430373647693238 -0.9999927978177805 3 0 0 0
331 2 12.707349328099996 25.7632017386 5.0382403714000015 1 0 0 0 0 0 0
363 2 19.574349486100004 25.7632017386 5.0382403714000015 1 0 0 0 0 0 0
107 1 20.601000309 23.787986148 6.609133478500003 -0.0009322996827812533 -0.0014247344175990274 -0.9999985504735203 3 0 0 0
335 2 26.4413495341 25.7632017386 5.0382403714000015 1 0 0 0 0 0 0
79 1 27.468000411999995 23.787986148 6.609133478500003 -0.002625992172033565 -0.004841378148100032 -0.9999848324963427 3 0 0 0
367 2 33.30834969210001 25.7632017386 5.0382403714000015 1 0 0 0 0 0 0
111 1 34.335000515 23.787986148 6.609133478500003 0.009428899160153902 -0.01613476023177489 -0.9998253674381794 3 0 0 0
3 1 -13.734000206 27.7526506328 6.5955326658 0.007964935969754512 -0.016411289908387142 -0.9998336008349291 3 0 0 0
387 2 -11.497761595 27.8582691486 5.0382403714000015 1 0 0 0 0 0 0
35 1 -6.8670001030000005 27.7526506328 6.5955326658 0.014534046957186877 -0.007078058971947448 -0.9998693227418461 3 0 0 0
419 2 -4.630761492000001 27.8582691486 5.0382403714000015 1 0 0 0 0 0 0
7 1 0 27.7526506328 6.5955326658 0.012397380692485553 -0.002327997120501281 -0.9999204395257525 3 0 0 0
391 2 2.236238610999994 27.8582691486 5.0382403714000015 1 0 0 0 0 0 0
39 1 6.867000102999999 27.7526506328 6.5955326658 0.0064662462739250495 -0.0006676076093274598 -0.9999788707563799 3 0 0 0
423 2 9.103238714 27.8582691486 5.0382403714000015 1 0 0 0 0 0 0
11 1 13.734000205999997 27.7526506328 6.5955326658 0.002550721252756527 0.0006175014869284807 -0.9999965562505727 3 0 0 0
395 2 15.9702387621 27.8582691486 5.0382403714000015 1 0 0 0 0 0 0
43 1 20.601000309 27.7526506328 6.5955326658 -0.001727111100213377 0.002632176608486797 -0.9999950443544954 3 0 0 0
427 2 22.8372388651 27.8582691486 5.0382403714000015 1 0 0 0 0 0 0
15 1 27.468000411999995 27.7526506328 6.5955326658 -0.0033015723874721824 0.007131289686312659 -0.9999691216868556 3 0 0 0
399 2 29.704238968099997 27.8582691486 5.0382403714000015 1 0 0 0 0 0 0
47 1 34.335000515 27.7526506328 6.5955326658 0.010044938949020091 0.020378908363534336 -0.9997418663312149 3 0 0 0
431 2 36.57123907110001 27.8582691486 5.0382403714000015 1 0 0 0 0 0 0
451 2 -14.943587966599997 29.6364805831 5.0382403714000015 1 0 0 0 0 0 0
115 1 -10.3005001545 29.7349826849 6.609133478500003 0.011296828354480667 -0.00033318600493021055 -0.999936133288629 3 0 0 0
483 2 -8.076587808699992 29.6364805831 5.0382403714000015 1 0 0 0 0 0 0
87 1 -3.4335000515000065 29.7349826849 6.609133478500003 0.013484345957604085 -0.0005179120502216282 -0.9999089479453639 3 0 0 0
455 2 -1.2095877056999988 29.6364805831 5.0382403714000015 1 0 0 0 0 0 0
119 1 3.433500051499994 29.7349826849 6.609133478500003 0.008902212686451421 -0.00047520983197789677 -0.9999602616028809 3 0 0 0
487 2 5.6574123973 29.6364805831 5.0382403714000015 1 0 0 0 0 0 0
91 1 10.3005001545 29.7349826849 6.609133478500003 0.004510397782187244 0.0006125100385086154 -0.9999896405179894 3 0 0 0
459 2 12.524412445400003 29.6364805831 5.0382403714000015 1 0 0 0 0 0 0
123 1 17.1675002575 29.7349826849 6.609133478500003 0.0009180316545228379 0.0025195673403339293 -0.9999964044926857 3 0 0 0
491 2 19.3914125484 29.6364805831 5.0382403714000015 1 0 0 0 0 0 0
95 1 24.0345003605 29.7349826849 6.609133478500003 -0.0027075821117854 0.0072454965602545334 -0.9999700854419117 3 0 0 0
463 2 26.258412651400004 29.6364805831 5.0382403714000015 1 0 0 0 0 0 0
127 1 30.901500463499982 29.7349826849 6.609133478500003 0.004223470597311498 0.02071563157296528 -0.9997764874733984 3 0 0 0
495 2 33.1254127544 29.6364805831 5.0382403714000015 1 0 0 0 0 0 0
83 1 37.768500566499995 29.7349826849 6.609133478500003 0.023243186187476943 0.046005571254559806 -0.9986707373851482 3 -1 0 0
339 2 -18.1941510804 31.7101982756 5.0382403714000015 1 0 0 0 0 0 0
371 2 -11.327150977400002 31.7101982756 5.0382403714000015 1 0 0 0 0 0 0
343 2 -4.460150874400002 31.7101982756 5.0382403714000015 1 0 0 0 0 0 0
375 2 2.4068492285999987 31.7101982756 5.0382403714000015 1 0 0 0 0 0 0
347 2 9.2738492766 31.7101982756 5.0382403714000015 1 0 0 0 0 0 0
379 2 16.140849434599996 31.7101982756 5.0382403714000015 1 0 0 0 0 0 0
351 2 23.007849482599998 31.7101982756 5.0382403714000015 1 0 0 0 0 0 0
383 2 29.874849640599987 31.7101982756 5.0382403714000015 1 0 0 0 0 0 0
467 2 -18.3770880181 35.5834771201 5.0382403714000015 1 0 0 0 0 0 0
19 1 -17.1675002575 33.6996471698 6.5955326658 0.019840274325259154 0.03632456576513071 -0.9991430775603035 3 0 0 0
100 1 -13.734000206 35.6819792219 6.609133478500003 0.009030714819059246 0.018567848277538747 -0.9997868178767908 3 0 0 0
403 2 -14.93126164649999 33.8052656856 5.0382403714000015 1 0 0 0 0 0 0
499 2 -11.5100878602 35.5834771201 5.0382403714000015 1 0 0 0 0 0 0
51 1 -10.300500154499993 33.6996471698 6.5955326658 0.008536066326184788 0.011916952530819641 -0.9998925551348287 3 0 0 0
72 1 -6.867000102999999 35.6819792219 6.609133478500003 0.009818775827023661 0.0078880688598649 -0.999920681859777 3 0 0 0
435 2 -8.064261543499994 33.8052656856 5.0382403714000015 1 0 0 0 0 0 0
471 2 -4.6430877572 35.5834771201 5.0382403714000015 1 0 0 0 0 0 0
23 1 -3.433500051499994 33.6996471698 6.5955326658 0.010840862388549692 0.0050377315101436965 -0.9999285459291102 3 0 0 0
104 1 0 35.6819792219 6.609133478500003 0.010177165827685679 0.002836148775981456 -0.9999441892204973 3 0 0 0
407 2 -1.1972614405000002 33.8052656856 5.0382403714000015 1 0 0 0 0 0 0
503 2 2.2239123457999987 35.5834771201 5.0382403714000015 1 0 0 0 0 0 0
55 1 3.4335000515000047 33.6996471698 6.5955326658 0.008404689759258736 0.0023910094340322614 -0.9999618214031657 3 0 0 0
76 1 6.867000102999999 35.6819792219 6.609133478500003 0.008383959282101505 0.002040217444138343 -0.9999627726768314 3 0 0 0
439 2 5.669738662500002 33.8052656856 5.0382403714000015 1 0 0 0 0 0 0
475 2 9.090912393899998 35.5834771201 5.0382403714000015 1 0 0 0 0 0 0
27 1 10.300500154500003 33.6996471698 6.5955326658 0.005402779855946172 0.0029939472625885133 -0.9999809229428417 3 0 0 0
411 2 12.536738710599998 33.8052656856 5.0382403714000015 1 0 0 0 0 0 0
108 1 13.734000206000001 35.6819792219 6.609133478500003 0.0061031193825126185 0.004247051964441448 -0.9999723568596357 3 0 0 0
59 1 17.167500257500002 33.6996471698 6.5955326658 0.002256766374136533 0.006250976853632681 -0.9999779159031004 3 0 0 0
507 2 15.9579124969 35.5834771201 5.0382403714000015 1 0 0 0 0 0 0
443 2 19.4037388136 33.8052656856 5.0382403714000015 1 0 0 0 0 0 0
80 1 20.601000309000003 35.6819792219 6.609133478500003 0.0036550036834704733 0.011341594621765164 -0.9999290020694008 3 0 0 0
31 1 24.034500360500004 33.6996471698 6.5955326658 -0.0003601323491315798 0.015336575336365134 -0.9998823229568784 3 0 0 0
479 2 22.824912599900003 35.5834771201 5.0382403714000015 1 0 0 0 0 0 0
415 2 26.270738916600003 33.8052656856 5.0382403714000015 1 0 0 0 0 0 0
112 1 27.468000412 35.6819792219 6.609133478500003 0.00757334717088605 0.029421800244081413 -0.9995383945016959 3 0 0 0
63 1 30.9015004635 33.6996471698 6.5955326658 0.009499780816166934 0.03936219767909867 -0.9991798494557007 3 0 0 0
511 2 29.691912702900005 35.5834771201 5.0382403714000015 1 0 0 0 0 0 0
447 2 33.1377390196 33.8052656856 5.0382403714000015 1 0 0 0 0 0 0
68 1 34.335000515000004 35.6819792219 6.609133478500003 0.02799548933239734 0.0647190818838609 -0.9975107483216159 3 -1 0 0
324 2 -21.627651131899988 37.6571948125 5.0382403714000015 1 0 0 0 0 0 0
356 2 -14.7606510289 37.6571948125 5.0382403714000015 1 0 0 0 0 0 0
328 2 -7.893650925899996 37.6571948125 5.0382403714000015 1 0 0 0 0 0 0
360 2 -1.0266508228999953 37.6571948125 5.0382403714000015 1 0 0 0 0 0 0
332 2 5.840349225099999 37.6571948125 5.0382403714000015 1 0 0 0 0 0 0
364 2 12.707349383100002 37.6571948125 5.0382403714000015 1 0 0 0 0 0 0
336 2 19.574349431100003 37.6571948125 5.0382403714000015 1 0 0 0 0 0 0
368 2 26.4413495891 37.6571948125 5.0382403714000015 1 0 0 0 0 0 0
4 1 -20.601000309 39.6466437068 6.5955326658 0.027241873266463257 0.032050683381964866 -0.9991149253392639 3 0 0 0
388 2 -18.364761698 39.7522622226 5.0382403714000015 1 0 0 0 0 0 0
36 1 -13.734000206 39.6466437068 6.5955326658 0.008863365865264376 0.00824843391598054 -0.999926699355244 3 0 0 0
420 2 -11.497761595 39.7522622226 5.0382403714000015 1 0 0 0 0 0 0
8 1 -6.867000102999999 39.6466437068 6.5955326658 0.011140201828876083 0.0023543435830138825 -0.9999351743835722 3 0 0 0
392 2 -4.630761492000001 39.7522622226 5.0382403714000015 1 0 0 0 0 0 0
40 1 0 39.6466437068 6.5955326658 0.012553296536649276 -0.0007952331687192232 -0.9999208880457848 3 0 0 0
424 2 2.2362386109999974 39.7522622226 5.0382403714000015 1 0 0 0 0 0 0
12 1 6.867000102999995 39.6466437068 6.5955326658 0.012318819649174039 -0.0009431547425946789 -0.9999236756580879 3 0 0 0
396 2 9.103238659100004 39.7522622226 5.0382403714000015 1 0 0 0 0 0 0
44 1 13.734000205999997 39.6466437068 6.5955326658 0.011305990594539446 0.0020316128823471493 -0.9999340213862973 3 0 0 0
428 2 15.970238762099992 39.7522622226 5.0382403714000015 1 0 0 0 0 0 0
16 1 20.601000308999993 39.6466437068 6.5955326658 0.009627334447367382 0.011680314902922657 -0.9998854357751226 3 0 0 0
400 2 22.8372388651 39.7522622226 5.0382403714000015 1 0 0 0 0 0 0
48 1 27.468000411999995 39.6466437068 6.5955326658 0.0136854782302401 0.03533889943597878 -0.9992816769421232 3 0 0 0
432 2 29.704238968099997 39.7522622226 5.0382403714000015 1 0 0 0 0 0 0
452 2 -21.8105880696 41.5304736571 5.0382403714000015 1 0 0 0 0 0 0
116 1 -17.167500257500002 41.6289757589 6.609133478500003 0.016283329946755614 0.0041035035901707375 -0.9998589972711798 3 0 0 0
484 2 -14.943587911699998 41.5304736571 5.0382403714000015 1 0 0 0 0 0 0
88 1 -10.300500154500002 41.6289757589 6.609133478500003 0.01250959119922117 -0.00289858382101099 -0.999917550770994 3 0 0 0
456 2 -8.0765878087 41.5304736571 5.0382403714000015 1 0 0 0 0 0 0
120 1 -3.4335000515000047 41.6289757589 6.609133478500003 0.015011795631168032 -0.006213356826256299 -0.9998680113839417 3 0 0 0
488 2 -1.2095877056999988 41.5304736571 5.0382403714000015 1 0 0 0 0 0 0
92 1 3.433500051499994 41.6289757589 6.609133478500003 0.01599101076946427 -0.007749859054588834 -0.9998421011635814 3 0 0 0
460 2 5.657412342400001 41.5304736571 5.0382403714000015 1 0 0 0 0 0 0
124 1 10.300500154499996 41.6289757589 6.609133478500003 0.016154560029782782 -0.0068133046397231365 -0.9998462927221008 3 0 0 0
492 2 12.524412445400003 41.5304736571 5.0382403714000015 1 0 0 0 0 0 0
96 1 17.16750025749999 41.6289757589 6.609133478500003 0.01595291229947371 -0.0018908615656046909 -0.9998709562897129 3 0 0 0
464 2 19.391412548399998 41.5304736571 5.0382403714000015 1 0 0 0 0 0 0
128 1 24.0345003605 41.6289757589 6.609133478500003 0.016445241259847174 0.013522431029490332 -0.9997733232583067 3 0 0 0
496 2 26.2584126514 41.5304736571 5.0382403714000015 1 0 0 0 0 0 0
84 1 30.901500463499996 41.6289757589 6.609133478500003 0.03101942928966499 0.048516710875173535 -0.9983405850572228 3 -1 0 0
340 2 -25.0611511834 43.6041913495 5.0382403714000015 1 0 0 0 0 0 0
372 2 -18.1941510804 43.6041913495 5.0382403714000015 1 0 0 0 0 0 0
344 2 -11.3271509774 43.6041913495 5.0382403714000015 1 0 0 0 0 0 0
376 2 -4.4601508744 43.6041913495 5.0382403714000015 1 0 0 0 0 0 0
348 2 2.4068491736000013 43.6041913495 5.0382403714000015 1 0 0 0 0 0 0
380 2 9.273849331600001 43.6041913495 5.0382403714000015 1 0 0 0 0 0 0
352 2 16.140849379600002 43.6041913495 5.0382403714000015 1 0 0 0 0 0 0
384 2 23.0078495376 43.6041913495 5.0382403714000015 1 0 0 0 0 0 0
468 2 -25.2440881211 47.4774701941 5.0382403714000015 1 0 0 0 0 0 0
20 1 -24.0345003605 45.5936402438 6.5955326658 0.03339769786021394 -0.021992389428891843 -0.9992001444079376 3 0 0 0
404 2 -21.7982617495 45.6992587595 5.0382403714000015 1 0 0 0 0 0 0
500 2 -18.377087963200005 47.4774701941 5.0382403714000015 1 0 0 0 0 0 0
52 1 -17.1675002575 45.5936402438 6.5955326658 0.025899062770747085 -0.03322828672850066 -0.9991121656294077 3 0 0 0
436 2 -14.931261646500001 45.6992587595 5.0382403714000015 1 0 0 0 0 0 0
472 2 -11.510087860200002 47.4774701941 5.0382403714000015 1 0 0 0 0 0 0
24 1 -10.3005001545 45.5936402438 6.5955326658 0.025047367166910646 -0.03254631232412567 -0.999156327584481 3 0 0 0
408 2 -8.064261543500002 45.6992587595 5.0382403714000015 1 0 0 0 0 0 0
504 2 -4.6430877572 47.4774701941 5.0382403714000015 1 0 0 0 0 0 0
56 1 -3.433500051499994 45.5936402438 6.5955326658 0.026881565652897902 -0.033409158592474474 -0.999080181742282 3 0 0 0
440 2 -1.1972614405000037 45.6992587595 5.0382403714000015 1 0 0 0 0 0 0
476 2 2.2239122908999995 47.4774701941 5.0382403714000015 1 0 0 0 0 0 0
28 1 3.433500051500001 45.5936402438 6.5955326658 0.028237417372060127 -0.03483061981167273 -0.9989942323075199 3 0 0 0
412 2 5.669738607600003 45.6992587595 5.0382403714000015 1 0 0 0 0 0 0
508 2 9.090912393899998 47.4774701941 5.0382403714000015 1 0 0 0 0 0 0
60 1 10.3005001545 45.5936402438 6.5955326658 0.029541789035919752 -0.03612900352583168 -0.998910395283174 3 0 0 0
444 2 12.536738710599998 45.6992587595 5.0382403714000015 1 0 0 0 0 0 0
32 1 17.167500257500002 45.5936402438 6.5955326658 0.0305753818047116 -0.03667124681338282 -0.998859532509275 3 0 0 0
480 2 15.9579124969 47.4774701941 5.0382403714000015 1 0 0 0 0 0 0
416 2 19.4037388136 45.6992587595 5.0382403714000015 1 0 0 0 0 0 0
64 1 24.034500360499997 45.5936402438 6.5955326658 0.028731310472247494 -0.03222735368118915 -0.9990675199771318 3 0 0 0
512 2 22.824912599899996 47.4774701941 5.0382403714000015 1 0 0 0 0 0 0
448 2 26.270738916600003 45.6992587595 5.0382403714000015 1 0 0 0 0 0 0
129 2 1.0266508503999996 1.9894487515 8.1664257728 1 0 0 0 0 0 0
161 2 7.893650953399994 1.9894487515 8.1664257728 1 0 0 0 0 0 0
133 2 14.7606510564 1.9894487515 8.1664257728 1 0 0 0 0 0 0
165 2 21.6276511594 1.9894487515 8.1664257728 1 0 0 0 0 0 0
137 2 28.494651262399998 1.9894487515 8.1664257728 1 0 0 0 0 0 0
169 2 35.3616513654 1.9894487515 8.1664257728 1 0 0 0 0 0 0
141 2 42.2286514684 1.9894487515 8.1664257728 1 0 0 0 0 0 0
173 2 49.0956515714 1.9894487515 8.1664257728 1 0 0 0 0 0 0
257 2 -2.2239123184 4.063166444 8.1664257728 1 0 0 0 0 0 0
289 2 4.643087784599998 4.063166444 8.1664257728 1 0 0 0 0 0 0
261 2 11.510087887600001 4.063166444 8.1664257728 1 0 0 0 0 0 0
293 2 18.3770879906 4.063166444 8.1664257728 1 0 0 0 0 0 0
265 2 25.2440880936 4.063166444 8.1664257728 1 0 0 0 0 0 0
297 2 32.1110881966 4.063166444 8.1664257728 1 0 0 0 0 0 0
269 2 38.9780882996 4.063166444 8.1664257728 1 0 0 0 0 0 0